LAMMPS (29 Aug 2024 - Development - patch_29Aug2024-269-g805c2ae131)
# PART A - ENERGY MINIMIZATION


# 1) Initialization
units real
atom_style full

bond_style     harmonic
angle_style    harmonic
dihedral_style opls
improper_style cvff


pair_style lj/cut/coul/long 10

kspace_style pppm 1e-6

read_data OCCO_10k_STABLE.data
Reading data file ...
  orthogonal box = (-5 -5 -5) to (5 5 5)
  1 by 1 by 1 MPI processor grid
  reading atoms ...
  10 atoms
  scanning bonds ...
  1 = max bonds/atom
  scanning angles ...
  6 = max angles/atom
  scanning dihedrals ...
  7 = max dihedrals/atom
  scanning impropers ...
  2 = max impropers/atom
  orthogonal box = (-5 -5 -5) to (5 5 5)
  1 by 1 by 1 MPI processor grid
  reading bonds ...
  9 bonds
  reading angles ...
  14 angles
  reading dihedrals ...
  15 dihedrals
  reading impropers ...
  4 impropers
Finding 1-2 1-3 1-4 neighbors ...
  special bond factors lj:    0        0        0       
  special bond factors coul:  0        0        0       
     4 = max # of 1-2 neighbors
     4 = max # of 1-3 neighbors
     7 = max # of 1-4 neighbors
     9 = max # of special neighbors
  special bonds CPU = 0.000 seconds
  read_data CPU = 0.003 seconds

replicate 2 1 1 bbox
Replication is creating a 2x1x1 = 2 times larger system...
  orthogonal box = (-5 -5 -5) to (15 5 5)
  1 by 1 by 1 MPI processor grid
  bounding box image = (-1 0 0) to (0 0 0)
  bounding box extra memory = 0.00 MB
  average # of replicas added to proc = 2.00 out of 2 (100.00%)
  20 atoms
  18 bonds
  28 angles
  30 dihedrals
  8 impropers
Finding 1-2 1-3 1-4 neighbors ...
  special bond factors lj:    0        0        0       
  special bond factors coul:  0        0        0       
     4 = max # of 1-2 neighbors
     4 = max # of 1-3 neighbors
     7 = max # of 1-4 neighbors
     9 = max # of special neighbors
  special bonds CPU = 0.000 seconds
  replicate CPU = 0.001 seconds


timestep 0.1

velocity all create 10 42

dump atom all atom 100 OCCO_10k_out.atom

fix 1 all nve

fix recenter all recenter INIT INIT INIT

compute msd all msd
fix msd all ave/time 2000 1 2000 c_msd file msd.msd mode vector

thermo_style custom step temp press etotal density evdwl ecoul epair eangle edihed eimp emol elong etail enthalpy ecouple econserve ebond
thermo 100

run 100000

CITE-CITE-CITE-CITE-CITE-CITE-CITE-CITE-CITE-CITE-CITE-CITE-CITE

Your simulation uses code contributions which should be cited:

- Type Label Framework: https://doi.org/10.1021/acs.jpcb.3c08419

@Article{Gissinger24,
 author = {Jacob R. Gissinger, Ilia Nikiforov, Yaser Afshar, Brendon Waters, Moon-ki Choi, Daniel S. Karls, Alexander Stukowski, Wonpil Im, Hendrik Heinz, Axel Kohlmeyer, and Ellad B. Tadmor},
 title = {Type Label Framework for Bonded Force Fields in LAMMPS},
 journal = {J. Phys. Chem. B},
 year =    2024,
 volume =  128,
 number =  13,
 pages =   {3282–-3297}
}

CITE-CITE-CITE-CITE-CITE-CITE-CITE-CITE-CITE-CITE-CITE-CITE-CITE

PPPM initialization ...
WARNING: System is not charge neutral, net charge = -0.0002 (src/kspace.cpp:327)
  using 12-bit tables for long-range coulomb (src/kspace.cpp:342)
  G vector (1/distance) = 0.30925871
  grid = 16 10 10
  stencil order = 5
  estimated absolute RMS force accuracy = 0.00022876842
  estimated relative force accuracy = 6.889293e-07
  using double precision KISS FFT
  3d grid and FFT values/proc = 6647 1600
Generated 45 of 45 mixed pair_coeff terms from geometric mixing rule
Neighbor list info ...
  update: every = 1 steps, delay = 0 steps, check = yes
  max neighbors/atom: 2000, page size: 100000
  master list distance cutoff = 12
  ghost atom cutoff = 12
  binsize = 6, bins = 4 2 2
  1 neighbor lists, perpetual/occasional/extra = 1 0 0
  (1) pair lj/cut/coul/long, perpetual
      attributes: half, newton on
      pair build: half/bin/newton
      stencil: half/bin/3d
      bin: standard
WARNING: Bond/angle/dihedral extent > half of periodic box length (src/domain.cpp:1172)
Per MPI rank memory allocation (min/avg/max) = 12.14 | 12.14 | 12.14 Mbytes
   Step          Temp          Press          TotEng        Density         E_vdwl         E_coul         E_pair        E_angle        E_dihed        E_impro         E_mol          E_long         E_tail        Enthalpy       Ecouple       Econserve        E_bond    
         0   10            -3795.0758     -13.783042      0.10306633    -0.065532932    102.88506     -22.502183      0.62316523     1.0100172      0              8.1527867     -125.32171      0             -124.47762      0             -13.783042      6.5196043    
       100   59.572462     -2744.8579     -13.787968      0.10306633    -0.068009923    102.73095     -22.696144      0.5989711      1.0680681      0              5.534266      -125.35909      0             -93.849842      0             -13.787968      3.8672268    
       200   121.61363     -628.9447      -13.791916      0.10306633    -0.068070393    102.79908     -22.776542      0.5480054      0.89060147     0              2.0969906     -125.50756      0             -32.136942      0             -13.791916      0.65838369   
       300   97.907407      2268.0841     -13.790052      0.10306633    -0.067690142    103.44899     -22.334086      0.39857063     0.47797903     0              2.9990097     -125.71539      0              52.365307      0             -13.790052      2.1224601    
       400   34.114192      3751.7444     -13.785754      0.10306633    -0.067400693    104.0967      -21.800706      0.36377615    -0.078641029    0              6.0828808     -125.83001      0              95.644934      0             -13.785754      5.7977457    
       500   52.347329      2736.1341     -13.785913      0.10306633    -0.067152483    104.24526     -21.600145      0.53478002    -0.47511376     0              4.8495207     -125.77825      0              66.021507      0             -13.785913      4.7898545    
       600   107.20362      1011.7641     -13.789679      0.10306633    -0.066854444    104.02421     -21.699389      1.1821057     -0.58128457     0              1.8381906     -125.65674      0              15.721405      0             -13.789679      1.2373694    
       700   106.29999     -1352.5142     -13.78993       0.10306633    -0.066747986    104.28711     -21.283259      0.66328561    -0.56667546     0              1.4729874     -125.50362      0             -53.239995      0             -13.78993       1.3763772    
       800   41.682349     -3061.495      -13.785895      0.10306633    -0.066814932    104.19454     -21.28435       0.59808705    -0.56327326     0              5.1377594     -125.41208      0             -103.08342      0             -13.785895      5.1029456    
       900   34.484632     -3593.3232     -13.784395      0.10306633    -0.067066855    103.52836     -21.928739      0.58196225    -0.46819377     0              6.1912938     -125.39004      0             -118.59426      0             -13.784395      6.0775254    
      1000   87.531091     -1703.7136     -13.787816      0.10306633    -0.067110347    103.10332     -22.39681       0.88826091    -0.10241103     0              3.6516372     -125.43302      0             -63.481646      0             -13.787816      2.8657873    
      1100   120.38393      1230.816      -13.790363      0.10306633    -0.066684825    103.433       -22.275725      0.22997172     0.45672227     0              1.6673712     -125.64204      0              22.110015      0             -13.790363      0.98067726   
      1200   76.605649      2512.1703     -13.788097      0.10306633    -0.06675084     103.3876      -22.474332      0.4150885      1.0340493      0              4.3476442     -125.79518      0              59.486757      0             -13.788097      2.8985064    
      1300   34.392073      2794.9425     -13.784634      0.10306633    -0.066439256    102.94127     -22.993447      0.63770772     1.3681013      0              7.2610038     -125.86827      0              67.738103      0             -13.784634      5.2551948    
      1400   53.960222      1880.9367     -13.785469      0.10306633    -0.065818876    102.75007     -23.187991      0.62923397     1.4228405      0              6.3464636     -125.87224      0              41.077596      0             -13.785469      4.2943891    
      1500   96.39811      -10.278655     -13.788742      0.10306633    -0.065740884    102.79392     -23.061375      0.53538733     1.3722264      0              3.8130885     -125.78955      0             -14.088549      0             -13.788742      1.9054748    
      1600   95.660347     -2065.3768     -13.789578      0.10306633    -0.066781931    102.86619     -22.89138       0.25059144     1.1162124      0              3.6840405     -125.69079      0             -74.032381      0             -13.789578      2.3172367    
      1700   57.526266     -3048.9363     -13.786334      0.10306633    -0.067097847    102.43483     -23.178852      1.0846057      0.53311488     0              6.1344958     -125.54659      0             -102.71755      0             -13.786334      4.5167752    
      1800   49.006665     -1961.2228     -13.784623      0.10306633    -0.066351889    103.08279     -22.505995      0.60181547    -0.076258622    0              5.9458601     -125.52243      0             -70.989469      0             -13.784623      5.4203032    
      1900   82.378906     -364.636       -13.787759      0.10306633    -0.066896539    104.01972     -21.617103      0.55511494    -0.51064345     0              3.1637824     -125.56993      0             -24.423443      0             -13.787759      3.1193109    
      2000   109.38993      1277.5364     -13.789351      0.10306633    -0.06651329     104.55044     -21.114229      0.48998575    -0.70462633     0              1.129537      -125.59816      0              23.473764      0             -13.789351      1.3441775    
      2100   81.458904      2194.823      -13.787894      0.10306633    -0.067323394    104.51495     -21.239627      0.51548345    -0.74763102     0              2.8382763     -125.68725      0              50.23059       0             -13.787894      3.0704239    
      2200   45.572913      1955.6238     -13.785002      0.10306633    -0.067339036    104.49332     -21.320427      0.76855136    -0.73955863     0              4.9543845     -125.74641      0              43.256531      0             -13.785002      4.9253918    
      2300   51.268153      788.57955     -13.784977      0.10306633    -0.066060506    104.68665     -21.131312      0.44308212    -0.62795391     0              4.4427435     -125.7519       0              9.2162707      0             -13.784977      4.6276153    
      2400   102.68643     -826.19829     -13.789386      0.10306633    -0.067236702    103.55537     -22.207752      0.79337484    -0.18947636     0              2.6026789     -125.69589      0             -37.887895      0             -13.789386      1.9987804    
      2500   107.21239     -1502.6266     -13.789372      0.10306633    -0.067071849    102.86765     -22.800562      0.39560906     0.36281277     0              2.9391746     -125.60114      0             -57.617908      0             -13.789372      2.1807528    
      2600   63.269711     -1751.0582     -13.785732      0.10306633    -0.066655776    102.76161     -22.908454      0.51689378     0.72244312     0              5.5394167     -125.60341      0             -64.860507      0             -13.785732      4.3000798    
      2700   31.051756     -1224.7043     -13.784023      0.10306633    -0.06634432     102.96806     -22.758269      0.47312147     0.96883661     0              7.2156177     -125.65998      0             -49.506136      0             -13.784023      5.7736597    
      2800   80.419196     -54.770765     -13.787066      0.10306633    -0.066414065    102.7722      -23.025059      0.42772245     1.0835298      0              4.6834209     -125.73084      0             -15.384617      0             -13.787066      3.1721687    
      2900   119.61306      1027.7584     -13.789559      0.10306633    -0.066466326    102.75622     -23.139898      1.0109833      0.96733487     0              2.5760057     -125.82965      0              16.188045      0             -13.789559      0.59768756   
      3000   86.594434      1322.1635     -13.786676      0.10306633    -0.066512838    103.47758     -22.51159       0.58053668     0.56189423     0              3.8206041     -125.92265      0              24.778121      0             -13.786676      2.6781732    
      3100   28.983911      684.30228     -13.783143      0.10306633    -0.066508837    103.71276     -22.289664      0.69050429     0.074533011    0              6.865006      -125.93592      0              6.1765508      0             -13.783143      6.0999687    
      3200   55.097218      350.76092     -13.784337      0.10306633    -0.065974846    103.59159     -22.311139      0.66689031    -0.36658931     0              5.4063493     -125.83676      0             -3.5533602      0             -13.784337      5.1060483    
      3300   123.67847     -125.40891     -13.788666      0.10306633    -0.066006418    103.72012     -22.019839      0.92862723    -0.60488411     0              1.2265947     -125.67395      0             -17.446587      0             -13.788666      0.90285157   
      3400   111.765       -686.56887     -13.787248      0.10306633    -0.065093171    104.30656     -21.339537      0.53738384    -0.63462279     0              1.2224344     -125.58101      0             -33.813053      0             -13.787248      1.3196733    
      3500   41.38272      -898.23466     -13.782695      0.10306633    -0.065155538    104.28556     -21.297712      0.33091577    -0.58428854     0              5.1712904     -125.51811      0             -39.982358      0             -13.782695      5.4246632    
      3600   28.22344      -815.82321     -13.782212      0.10306633    -0.065398543    103.70594     -21.918121      0.96878019    -0.45960267     0              6.5374636     -125.55867      0             -37.578101      0             -13.782212      6.0282861    
      3700   105.75207     -325.15775     -13.786639      0.10306633    -0.065286158    103.56619     -22.208107      0.50762522    -0.19207591     0              2.4321584     -125.70901      0             -23.270823      0             -13.786639      2.1166091    
      3800   128.52735     -73.397201     -13.788007      0.10306633    -0.064920834    103.70603     -22.23176       0.43407823     0.21435357     0              1.1645567     -125.87287      0             -15.928853      0             -13.788007      0.51612485   
      3900   67.02777       414.66899     -13.783988      0.10306633    -0.06529273     103.45777     -22.624139      0.2666029      0.64446338     0              5.0440065     -126.01662      0             -1.6889442      0             -13.783988      4.1329402    
      4000   19.772841      612.93599     -13.782028      0.10306633    -0.066089973    102.78529     -23.325821      0.96534836     1.0087482      0              8.4239508     -126.04502      0              4.0960578      0             -13.782028      6.4498542    
      4100   76.155306      692.76619     -13.785342      0.10306633    -0.065744178    102.92398     -23.161226      0.63666873     1.1546715      0              5.0627988     -126.01947      0              6.4212268      0             -13.785342      3.2714586    
      4200   124.43056      882.84582     -13.789077      0.10306633    -0.06595162     103.04163     -22.941851      0.72753653     1.042407       0              2.1056008     -125.91753      0              11.961724      0             -13.789077      0.33565725   
      4300   87.924972      105.78376     -13.787063      0.10306633    -0.066132762    102.58796     -23.233634      0.98839867     0.82901592     0              4.4669057     -125.75546      0             -10.701568      0             -13.787063      2.6494911    
      4400   31.446075     -786.16513     -13.783006      0.10306633    -0.06616995     102.50919     -23.193261      0.67459025     0.50033371     0              7.6292947     -125.63628      0             -36.71383       0             -13.783006      6.4543708    
      4500   59.433826     -1535.9858     -13.784932      0.10306633    -0.066892691    103.04839     -22.622483      0.64112487     0.078854708    0              5.4714925     -125.60398      0             -58.586488      0             -13.784932      4.7515129    
      4600   116.90286     -1245.2855     -13.788528      0.10306633    -0.066621458    103.87543     -21.814119      0.43872465    -0.30333713     0              1.4047522     -125.62292      0             -50.110952      0             -13.788528      1.2693647    
      4700   105.78489     -560.83653     -13.789075      0.10306633    -0.06764897     104.01283     -21.738957      0.79857854    -0.57126273     0              1.958713      -125.68414      0             -30.147526      0             -13.789075      1.7313972    
      4800   45.730853      45.66068      -13.785846      0.10306633    -0.068489338    104.38782     -21.395491      0.66711605    -0.71543186     0              5.0196604     -125.71482      0             -12.454018      0             -13.785846      5.0679762    
      4900   38.10161       1342.5297     -13.784799      0.10306633    -0.068302648    104.90021     -20.934676      0.43665834    -0.73939663     0              4.991978      -125.76658      0              25.374038      0             -13.784799      5.2947162    
      5000   88.834891      2027.9914     -13.78768       0.10306633    -0.067636376    104.68548     -21.147983      0.47013503    -0.66776769     0              2.3291038     -125.76582      0              45.364668      0             -13.78768       2.5267365    
      5100   115.15845      1567.7388     -13.789629      0.10306633    -0.067615763    103.82809     -21.899685      0.47426649    -0.40238124     0              1.5880115     -125.66016      0              31.938097      0             -13.789629      1.5161262    
      5200   82.878656     -147.61017     -13.788489      0.10306633    -0.068581297    103.08464     -22.586586      0.80454609     0.060266649    0              4.1042317     -125.60265      0             -18.093975      0             -13.788489      3.2394189    
      5300   46.529774     -1659.2505     -13.785646      0.10306633    -0.068344104    102.92772     -22.715032      0.63987881     0.48084787     0              6.2941545     -125.57441      0             -62.182578      0             -13.785646      5.1734279    
      5400   59.188679     -2189.3673     -13.786832      0.10306633    -0.068274948    102.55814     -23.113931      0.80882264     0.75697494     0              5.9749245     -125.6038       0             -77.646185      0             -13.786832      4.4091269    
      5500   91.942081     -2212.6357     -13.790566      0.10306633    -0.06943871     102.2697      -23.511432      1.1833258      0.98639996     0              4.5136897     -125.71169      0             -78.328611      0             -13.790566      2.3439639    
      5600   95.005403     -715.55805     -13.790761      0.10306633    -0.069732828    102.59841     -23.299987      0.78381329     1.1285441      0              4.1285582     -125.82867      0             -34.662121      0             -13.790761      2.2162008    
      5700   59.491523      1239.8909     -13.787766      0.10306633    -0.069697362    103.24643     -22.784067      0.4235926      1.1373203      0              5.6269757     -125.9608       0              22.377309      0             -13.787766      4.0660628    
      5800   47.676015      2746.5577     -13.786161      0.10306633    -0.069218861    103.35448     -22.70924       0.15443748     1.0234772      0              6.2229294     -125.9945       0              66.325292      0             -13.786161      5.0450147    
      5900   76.637577      2416.7294     -13.788508      0.10306633    -0.069168611    103.1204      -22.864459      0.65254207     0.86205625     0              4.7355519     -125.91569      0              56.702532      0             -13.788508      3.2209536    
      6000   110.56358      1101.8994     -13.791029      0.10306633    -0.069268016    103.36431     -22.495493      0.60498639     0.54997496     0              2.4426522     -125.79054      0              18.349117      0             -13.791029      1.2876909    
      6100   85.79197      -684.46219     -13.78906       0.10306633    -0.069142072    103.55915     -22.097524      0.50204339     0.18316047     0              3.449602      -125.58754      0             -33.753418      0             -13.78906       2.7643982    
      6200   41.835719     -2900.5696     -13.785699      0.10306633    -0.06928772     103.26188     -22.240454      0.62534902    -0.084591787    0              6.0853726     -125.43305      0             -98.389362      0             -13.785699      5.5446153    
      6300   46.950443     -3345.4071     -13.787228      0.10306633    -0.070077603    103.252       -22.203149      0.66578248    -0.25269536     0              5.7568644     -125.38507      0             -111.36589      0             -13.787228      5.3437773    
      6400   102.25629     -1901.7541     -13.79114       0.10306633    -0.07006317     103.7431      -21.75772       0.52370748    -0.36185976     0              2.1752554     -125.43076      0             -69.261405      0             -13.79114       2.0134076    
      6500   109.79261      796.4412      -13.791387      0.10306633    -0.069920672    104.02273     -21.644126      0.65516999    -0.32851582     0              1.6345905     -125.59693      0              9.4391686      0             -13.791387      1.3079364    
      6600   55.159583      2605.3969     -13.787716      0.10306633    -0.070261758    103.83688     -21.932882      0.72036312    -0.17529297     0              5.0211818     -125.6995       0              62.206366      0             -13.787716      4.4761117    
      6700   27.905984      2999.2921     -13.786352      0.10306633    -0.070395794    103.5376      -22.322992      0.86703063     0.10711512     0              6.9561735     -125.7902       0              73.696844      0             -13.786352      5.9820278    
      6800   86.630999      2657.4304     -13.790222      0.10306633    -0.070244065    103.45975     -22.429285      0.53752736     0.52266203     0              3.7326823     -125.81879      0              63.72157       0             -13.790222      2.6724929    
      6900   125.1094       325.93606     -13.792725      0.10306633    -0.070245665    103.14123     -22.651697      0.47367509     0.94218306     0              1.7733526     -125.72268      0             -4.2858385      0             -13.792725      0.35749447   
      7000   77.45258      -2449.6212     -13.789216      0.10306633    -0.070468261    102.39541     -23.309054      0.57405983     1.2194172      0              5.1332815     -125.634        0             -85.239641      0             -13.789216      3.3398044    
      7100   14.520121     -4075.6607     -13.785985      0.10306633    -0.070715259    102.10112     -23.550278      0.62792194     1.4062826      0              8.9419406     -125.58068      0             -132.66465      0             -13.785985      6.907736     
      7200   53.751358     -2948.8965     -13.788275      0.10306633    -0.070313327    102.41584     -23.306273      0.35299795     1.4797611      0              6.4737683     -125.6518       0             -99.801537      0             -13.788275      4.6410092    
      7300   119.50184     -422.22447     -13.792454      0.10306633    -0.070088271    102.62803     -23.216447      0.48907151     1.4831216      0              2.6559598     -125.77439      0             -26.107875      0             -13.792454      0.68376673   
      7400   99.404584      1567.3914     -13.791274      0.10306633    -0.070344208    102.62391     -23.30027       0.7673075      1.4211863      0              3.8791787     -125.85384      0              31.926318      0             -13.791274      1.6906849    
      7500   28.435464      3462.0648     -13.786958      0.10306633    -0.070386434    103.0248      -22.962612      0.58541766     1.2814251      0              7.5652003     -125.91703      0              87.194372      0             -13.786958      5.6983576    
      7600   34.947898      3367.1717     -13.787081      0.10306633    -0.070273722    103.45917     -22.462255      0.41094888     0.93241319     0              6.6958867     -125.85115      0              84.426411      0             -13.787081      5.3525246    
      7700   110.42616      1452.1427     -13.791525      0.10306633    -0.070555678    103.27859     -22.49043       0.63694282     0.51540346     0              2.4448765     -125.69847      0              28.564498      0             -13.791525      1.2925302    
      7800   115.79661     -1348.4873     -13.792463      0.10306633    -0.070860354    103.0392      -22.520642      0.92397559     0.18208034     0              2.169993      -125.48899      0             -53.12507       0             -13.792463      1.0639371    
      7900   48.771393     -3448.431      -13.788175      0.10306633    -0.070942007    103.2454      -22.093162      0.80842107    -0.1060986      0              5.5427992     -125.26762      0             -114.37183      0             -13.788175      4.8404767    
      8000   20.552937     -3375.4013     -13.786192      0.10306633    -0.070702947    103.61307     -21.675463      0.57772487    -0.32786526     0              6.7252478     -125.21783      0             -112.23972      0             -13.786192      6.4753882    
      8100   87.052895     -2082.3466     -13.789741      0.10306633    -0.070782516    103.75927     -21.555932      0.43785695    -0.50453206     0              2.8359164     -125.24442      0             -74.52752       0             -13.789741      2.9025916    
      8200   120.54895      631.9872      -13.792598      0.10306633    -0.070765304    103.7892      -21.676106      0.86625689    -0.53666428     0              1.0561714     -125.39454      0              4.6411722      0             -13.792598      0.72657874   
      8300   78.701232      2817.463      -13.790152      0.10306633    -0.070564241    104.20449     -21.471303      0.60509328    -0.36541811     0              3.2238768     -125.60523      0              68.389464      0             -13.790152      2.9842016    
      8400   26.733504      3358.9762     -13.786993      0.10306633    -0.070624707    104.33508     -21.427923      0.53172047    -0.074938738    0              6.1268679     -125.69238      0              84.187451      0             -13.786993      5.6700862    
      8500   60.324835      2240.837      -13.788264      0.10306633    -0.070890924    103.74056     -22.070253      0.52629879     0.22233524     0              4.8654684     -125.73992      0              51.572356      0             -13.788264      4.1168344    
      8600   106.50259     -142.93031     -13.791816      0.10306633    -0.071236192    103.0395      -22.739253      0.74718898     0.50881626     0              2.9156213     -125.70752      0             -17.960799      0             -13.791816      1.6596161    
      8700   98.788968     -1882.6955     -13.791461      0.10306633    -0.071271793    102.84642     -22.852157      0.48606226     0.83103608     0              3.4657444     -125.62731      0             -68.705825      0             -13.791461      2.148646     
      8800   47.861833     -3224.1541     -13.787881      0.10306633    -0.071200281    102.69077     -22.947809      0.56717114     1.0577097      0              6.4492543     -125.56737      0             -107.82984      0             -13.787881      4.8243735    
      8900   42.338798     -2671.7733     -13.786931      0.10306633    -0.071240475    102.16807     -23.446563      1.020089       1.1210095      0              7.2617575     -125.54339      0             -91.717077      0             -13.786931      5.120659     
      9000   78.516455     -681.47789     -13.790075      0.10306633    -0.071237311    102.34786     -23.342955      0.76771658     1.1343128      0              5.10607       -125.61958      0             -33.667387      0             -13.790075      3.2040406    
      9100   103.35644      1477.9986     -13.791972      0.10306633    -0.070881788    102.94236     -22.886304      0.56636004     1.071438       0              3.2406999     -125.75778      0              29.318216      0             -13.791972      1.6029018    
      9200   78.086556      2707.652      -13.790336      0.10306633    -0.070922194    103.23757     -22.66631       0.55252432     0.91551366     0              4.4535117     -125.83296      0              65.18632       0             -13.790336      2.9854737    
      9300   45.995767      2129.9185     -13.787558      0.10306633    -0.07129608     103.11978     -22.800446      0.79725622     0.72618816     0              6.4078998     -125.84893      0              48.337795      0             -13.787558      4.8844554    
      9400   54.133314      1052.2268     -13.788662      0.10306633    -0.071375892    103.28888     -22.577419      0.67748308     0.58085973     0              5.7228959     -125.79492      0              16.902634      0             -13.788662      4.4645531    
      9500   90.558809     -667.6832      -13.791744      0.10306633    -0.071445951    103.56952     -22.17086       0.55351209     0.45625641     0              3.2502822     -125.66893      0             -33.266693      0             -13.791744      2.2405137    
      9600   100.0405      -1889.2306     -13.791746      0.10306633    -0.071514534    103.32981     -22.307243      0.66578529     0.34004311     0              2.849664      -125.56554      0             -68.896727      0             -13.791746      1.8438356    
      9700   59.653055     -2150.7911     -13.788385      0.10306633    -0.071705625    103.07218     -22.438966      0.39615273     0.21465711     0              5.2721062     -125.43944      0             -76.52255       0             -13.788385      4.6612963    
      9800   41.527522     -1544.6213     -13.786921      0.10306633    -0.071726474    103.15925     -22.341244      0.64450854     0.068764888    0              6.2023953     -125.42876      0             -58.840355      0             -13.786921      5.4891218    
      9900   76.327469      162.37767     -13.790138      0.10306633    -0.071732905    103.74        -21.822795      0.20557583    -0.049321664    0              3.7098206     -125.49106      0             -9.0539144      0             -13.790138      3.5535664    
     10000   121.50724      1168.6764     -13.792913      0.10306633    -0.071851233    103.63042     -21.983423      0.54828961    -0.08343471     0              1.3089        -125.54199      0              20.294981      0             -13.792913      0.84404513   
     10100   82.900683      1595.6946     -13.79089       0.10306633    -0.071977274    103.44511     -22.292463      1.2475732     -0.036745092    0              3.8064602     -125.6656       0              32.752248      0             -13.79089       2.5956321    
     10200   29.329372      1136.644      -13.788216      0.10306633    -0.072707443    103.75024     -22.0113        0.68108141     0.028677722    0              6.5620039     -125.68883      0              19.365357      0             -13.788216      5.8522448    
     10300   42.094699      234.48125     -13.789477      0.10306633    -0.072667374    103.60472     -22.149454      0.77244605     0.11663441     0              5.9759272     -125.68151      0             -6.9501402      0             -13.789477      5.0868467    
     10400   114.72915     -132.11254     -13.793178      0.10306633    -0.072108103    103.26451     -22.451121      0.34426753     0.20423509     0              2.1602139     -125.64352      0             -17.646629      0             -13.793178      1.6117113    
     10500   115.14412     -1100.0129     -13.793085      0.10306633    -0.072403673    102.74342     -22.882407      1.0498881      0.28714047     0              2.56809       -125.55342      0             -45.878205      0             -13.793085      1.2310615    
     10600   47.305606     -1133.5523     -13.788455      0.10306633    -0.072329281    103.15223     -22.477632      0.54152796     0.37078886     0              6.0100057     -125.55753      0             -46.851851      0             -13.788455      5.0976889    
     10700   26.977773     -853.79057     -13.787021      0.10306633    -0.07194391     103.4171      -22.206785      0.3769113      0.37743715     0              6.8918669     -125.55194      0             -38.690341      0             -13.787021      6.1375184    
     10800   93.505755     -259.2624      -13.791462      0.10306633    -0.072244046    103.25206     -22.426457      0.67929901     0.37070625     0              3.3392598     -125.60627      0             -21.353614      0             -13.791462      2.2892546    
     10900   127.77339      320.26962     -13.793687      0.10306633    -0.072352296    103.50275     -22.30242       0.35448952     0.34103249     0              1.2722371     -125.73282      0             -4.4520794      0             -13.793687      0.57671511   
     11000   66.228092      317.23289     -13.789856      0.10306633    -0.072364203    103.77226     -22.108309      0.43526325     0.28770303     0              4.5675984     -125.8082       0             -4.5368237      0             -13.789856      3.8446321    
     11100   20.144051      934.16303     -13.786239      0.10306633    -0.071436578    103.79134     -22.150344      0.50634885     0.17805977     0              7.2232388     -125.87025      0              13.46138       0             -13.786239      6.5388302    
     11200   69.544242      661.07004     -13.78952       0.10306633    -0.071568485    103.13002     -22.752578      1.1709177      0.13020608     0              5.024393      -125.81103      0              5.4925369      0             -13.78952       3.7232693    
     11300   131.78402      406.5738      -13.792387      0.10306633    -0.0705804      103.05181     -22.733819      0.82026041     0.13496047     0              1.4777926     -125.71505      0             -1.9334634      0             -13.792387      0.52257168   
     11400   95.563938      84.531049     -13.790696      0.10306633    -0.07086391     103.2107      -22.506122      0.77463408     0.14340132     0              3.3031252     -125.64596      0             -11.325099      0             -13.790696      2.3850898    
     11500   28.75846      -735.79523     -13.786349      0.10306633    -0.071024675    103.12641     -22.482184      0.77995594     0.25977874     0              7.067088      -125.53757      0             -35.247987      0             -13.786349      6.0273534    
     11600   45.097119     -1182.9492     -13.787069      0.10306633    -0.071125865    102.95998     -22.679877      0.58551869     0.36203475     0              6.3387156     -125.56873      0             -48.29127       0             -13.787069      5.3911622    
     11700   112.61776     -1494.8523     -13.791259      0.10306633    -0.071437293    103.19698     -22.543028      0.77039935     0.38206451     0              2.3736187     -125.66857      0             -57.393033      0             -13.791259      1.2211548    
     11800   111.39307     -367.72591     -13.791243      0.10306633    -0.070912411    103.65262     -22.236993      0.39185083     0.4401363      0              2.1369598     -125.8187       0             -24.517053      0             -13.791243      1.3049726    
     11900   51.379701      365.57707     -13.787317      0.10306633    -0.0710641      103.46502     -22.570472      0.58641673     0.52288126     0              5.8732454     -125.96443      0             -3.124184       0             -13.787317      4.7639474    
     12000   35.190781      823.00327     -13.786183      0.10306633    -0.071255636    103.30341     -22.752183      0.55492806     0.48775887     0              6.972956      -125.98434      0              10.219134      0             -13.786183      5.930269     
     12100   92.096229      1747.0524     -13.789205      0.10306633    -0.070627439    103.38077     -22.621335      0.73222888     0.38260962     0              3.6162241     -125.93148      0              37.168731      0             -13.789205      2.5013856    
     12200   118.31288      1500.079      -13.791132      0.10306633    -0.069734468    103.68715     -22.175959      0.46571075     0.25991092     0              1.6841314     -125.79337      0              29.963096      0             -13.791132      0.95850971   
     12300   80.657275      292.14316     -13.788804      0.10306633    -0.069872248    103.24051     -22.438029      0.54037626     0.15281952     0              4.0811682     -125.60866      0             -5.2675879      0             -13.788804      3.3879724    
     12400   37.847158     -1704.5247     -13.785681      0.10306633    -0.06996939     102.9063      -22.66224       1.2081741      0.10916201     0              6.7330709     -125.49857      0             -63.503171      0             -13.785681      5.4157348    
     12500   61.710826     -2196.2586     -13.787192      0.10306633    -0.070258672    103.21841     -22.334058      0.77507971     0.0036603691   0              5.051849      -125.48221      0             -77.847549      0             -13.787192      4.2731089    
     12600   101.90281     -1650.1149     -13.789505      0.10306633    -0.069573747    103.38014     -22.253425      0.66641628    -0.12446882     0              2.6926142     -125.56399      0             -61.91997       0             -13.789505      2.1506668    
     12700   102.93278     -1003.9568     -13.789392      0.10306633    -0.069995592    103.48893     -22.296509      0.51532776    -0.14772414     0              2.677479      -125.71544      0             -43.072751      0             -13.789392      2.3098753    
     12800   62.206116      811.03625     -13.786156      0.10306633    -0.07007964     103.49903     -22.391727      0.97744093    -0.074916653    0              5.082504      -125.82068      0              9.870108       0             -13.786156      4.1799797    
     12900   48.226464      2198.5194     -13.785275      0.10306633    -0.069935357    104.06599     -21.896731      0.58079981     0.055827357    0              5.3801311     -125.89279      0              50.341026      0             -13.785275      4.743504     
     13000   76.462331      2861.0963     -13.787729      0.10306633    -0.069573165    104.14276     -21.787306      0.3896902      0.23203534     0              3.6691029     -125.8605       0              69.664581      0             -13.787729      3.0473773    
     13100   105.84751      1170.1541     -13.789747      0.10306633    -0.06951628     103.4872      -22.312479      0.76279969     0.33530893     0              2.5280172     -125.73017      0              20.341247      0             -13.789747      1.4299085    
     13200   86.061359     -820.62952     -13.78735       0.10306633    -0.068909158    103.16109     -22.548928      0.5499527      0.2794702      0              3.8874596     -125.6411       0             -37.72343       0             -13.78735       3.0580367    
     13300   49.042547     -2045.0384     -13.784562      0.10306633    -0.068792374    103.09048     -22.54403       0.38269277     0.17267951     0              5.9819244     -125.56572      0             -73.434137      0             -13.784562      5.4265521    
     13400   55.024195     -3212.6614     -13.78572       0.10306633    -0.068987593    103.11194     -22.519938      0.55242456     0.12154757     0              5.6179014     -125.56289      0             -107.49246      0             -13.78572       4.9439292    
     13500   99.18818      -2121.5458     -13.78951       0.10306633    -0.069815949    102.98455     -22.710608      1.1679408      0.07147023     0              3.3035368     -125.62534      0             -75.67065       0             -13.78951       2.0641258    
     13600   107.6815      -118.91139     -13.789738      0.10306633    -0.069589721    103.33388     -22.427759      0.94765842     0.045208913    0              2.5394375     -125.69205      0             -17.258139      0             -13.789738      1.5465702    
     13700   58.381517      2447.9239     -13.786285      0.10306633    -0.069481219    104.01466     -21.886155      0.56877554     0.061886634    0              4.7934105     -125.83134      0              57.614633      0             -13.786285      4.1627484    
     13800   35.603819      3058.8467     -13.785164      0.10306633    -0.069830138    104.07282     -21.856122      0.47151208     0.076163398    0              6.0545223     -125.85911      0              75.43512       0             -13.785164      5.5068468    
     13900   81.904824      2177.878      -13.78836       0.10306633    -0.069840385    103.48664     -22.393249      0.91392068     0.010188959    0              3.9661774     -125.81004      0              49.735873      0             -13.78836       3.0420678    
     14000   129.70957      974.69646     -13.790761      0.10306633    -0.069472592    103.35817     -22.467178      0.49619845     0.044403013    0              1.3302654     -125.75587      0              14.639135      0             -13.790761      0.78966391   
     14100   84.99573      -1840.7885     -13.78868       0.10306633    -0.069946657    103.39356     -22.310499      0.54618179     0.21040409     0              3.7080532     -125.63412      0             -67.480703      0             -13.78868       2.9514673    
     14200   26.446898     -3529.8766     -13.785211      0.10306633    -0.070289591    103.0374      -22.643105      0.73417487     0.35407931     0              7.3600644     -125.61022      0             -116.74447      0             -13.785211      6.2718103    
     14300   42.982871     -3370.0975     -13.787096      0.10306633    -0.070393412    102.90443     -22.761289      0.75653115     0.42314787     0              6.5398414     -125.59533      0             -112.08593      0             -13.787096      5.3601624    
     14400   117.83899     -929.31444     -13.791468      0.10306633    -0.070369493    103.24114     -22.500067      0.69403396     0.39879318     0              2.0347416     -125.67084      0             -40.897664      0             -13.791468      0.94191448   
     14500   107.53852      1608.6499     -13.790676      0.10306633    -0.070303533    103.99266     -21.896717      0.31538448     0.2782283      0              2.0155549     -125.81907      0              33.130341      0             -13.790676      1.4219421    
     14600   45.597774      2643.8551     -13.786261      0.10306633    -0.070761136    103.6524      -22.256734      0.6947853      0.15368064     0              5.8880255     -125.83837      0              63.329568      0             -13.786261      5.0395596    
     14700   34.201154      3375.9081     -13.785868      0.10306633    -0.070607362    103.51864     -22.376939      0.73793046     0.066311089    0              6.654076      -125.82497      0              84.682446      0             -13.785868      5.8498345    
     14800   105.34204      1895.8206     -13.790472      0.10306633    -0.070561788    103.72657     -22.047559      0.71869428    -0.04037173     0              2.2910002     -125.70356      0              41.506726      0             -13.790472      1.6126777    
     14900   120.70353     -782.75034     -13.792569      0.10306633    -0.071038774    103.55547     -22.037973      0.95383166    -0.054949563    0              1.4093123     -125.52241      0             -36.62379       0             -13.792569      0.51043025   
     15000   54.797155     -3071.6607     -13.788748      0.10306633    -0.071130377    103.24549     -22.228822      0.6176404     -0.013047244    0              5.3366153     -125.40318      0             -103.38279      0             -13.788748      4.7320222    
     15100   18.993309     -3729.9639     -13.785972      0.10306633    -0.070849189    102.81533     -22.602069      1.1976109     -0.063814743    0              7.7404036     -125.34655      0             -122.58137      0             -13.785972      6.6066074    
     15200   76.384102     -2021.2165     -13.78921       0.10306633    -0.07036199     103.53874     -22.021887      0.49396358    -0.16150948     0              3.9066338     -125.49027      0             -72.743947      0             -13.78921       3.5741797    
     15300   129.05337      22.986345     -13.792755      0.10306633    -0.07059567     103.87677     -21.837031      0.48389759    -0.1621541      0              0.73528861    -125.64321      0             -13.12229       0             -13.792755      0.41354512   
     15400   84.956325      2444.724      -13.790709      0.10306633    -0.071115308    103.7987      -22.006279      0.79876775    -0.075792464    0              3.4040347     -125.73387      0              57.516875      0             -13.790709      2.6810594    
     15500   29.504324      3406.5213     -13.786102      0.10306633    -0.070728871    104.0908      -21.787611      0.51124156    -0.070186955    0              6.3305194     -125.80768      0              85.575136      0             -13.786102      5.8894648    
     15600   50.977994      2457.7736     -13.787982      0.10306633    -0.071438832    104.4193      -21.39922       0.34986766    -0.077805577    0              4.7240796     -125.74708      0              57.900231      0             -13.787982      4.4520175    
     15700   111.66826      533.13181     -13.791829      0.10306633    -0.071362352    104.14276     -21.553849      0.41777241    -0.12409577     0              1.4376444     -125.62525      0              1.7585324      0             -13.791829      1.1439678    
     15800   101.09654     -1970.8098     -13.791959      0.10306633    -0.071706546    103.23938     -22.25695       1.2128506     -0.15812786     0              2.7393485     -125.42463      0             -71.276437      0             -13.791959      1.6846258    
     15900   46.575868     -3145.2073     -13.787426      0.10306633    -0.070289497    103.09225     -22.250187      0.73713917    -0.17156589     0              5.8249183     -125.27214      0             -105.52667      0             -13.787426      5.2593451    
     16000   35.032839     -3080.1        -13.787446      0.10306633    -0.071255247    103.33033     -22.040412      0.86324133    -0.17640533     0              6.2688682     -125.29949      0             -103.62764      0             -13.787446      5.5820322    
     16100   87.976198     -1019.8603     -13.790275      0.10306633    -0.070725395    103.24808     -22.212047      0.81326595    -0.083869455    0              3.4392051     -125.3894       0             -43.537507      0             -13.790275      2.7098086    
     16200   108.74401      1424.4899     -13.792636      0.10306633    -0.070965858    103.14259     -22.47567       1.0060658      0.097730484    0              2.5242745     -125.54729      0              27.756812      0             -13.792636      1.4204782    
     16300   77.873821      2612.801      -13.790241      0.10306633    -0.070968394    103.76554     -22.053976      0.63829566     0.21745002     0              3.8533211     -125.74855      0              62.419803      0             -13.790241      2.9975754    
     16400   39.518268      2751.0935     -13.786478      0.10306633    -0.07018385     104.13679     -21.792253      0.58300833     0.24856163     0              5.7676425     -125.85886      0              66.457276      0             -13.786478      4.9360726    
     16500   61.852061      1315.354      -13.788594      0.10306633    -0.071273471    103.67148     -22.270831      0.81269853     0.22667165     0              4.9792212     -125.87104      0              24.577584      0             -13.788594      3.9398511    
     16600   96.532297     -446.78108     -13.791367      0.10306633    -0.07113567     103.41764     -22.403473      0.45073305     0.21399523     0              3.1449613     -125.74998      0             -26.823055      0             -13.791367      2.480233     
     16700   96.709033     -2241.515      -13.791323      0.10306633    -0.071178949    103.46627     -22.185839      0.66535739     0.12284907     0              2.9173618     -125.58093      0             -79.171717      0             -13.791323      2.1291554    
     16800   54.105665     -2732.887      -13.787785      0.10306633    -0.070676337    103.76624     -21.760858      0.53346369     0.098195419    0              4.9087778     -125.45642      0             -93.500492      0             -13.787785      4.2771187    
     16900   41.640251     -1643.7916     -13.786351      0.10306633    -0.070373179    103.2168      -22.201649      0.72919931     0.099065181    0              6.0569862     -125.34807      0             -61.732381      0             -13.786351      5.2287217    
     17000   78.262189     -281.39945     -13.789124      0.10306633    -0.070196503    103.21581     -22.273655      0.91603715     0.005165577    0              4.0521211     -125.41926      0             -21.996968      0             -13.789124      3.1309184    
     17100   109.57642      1583.1023     -13.791351      0.10306633    -0.069778438    103.71272     -21.930026      0.77480552    -0.1049681      0              1.9327713     -125.57297      0              32.384497      0             -13.791351      1.2629339    
     17200   86.039318      2196.3201     -13.789625      0.10306633    -0.069966567    103.67115     -22.072473      0.90500081    -0.11007866     0              3.4099781     -125.67365      0              50.272527      0             -13.789625      2.6150559    
     17300   37.420419      1703.1756     -13.786446      0.10306633    -0.07020451     103.50001     -22.326813      0.72883594    -0.0095671713   0              6.4210465     -125.75662      0              35.891693      0             -13.786446      5.7017777    
     17400   50.268503      412.82597     -13.788336      0.10306633    -0.071130049    103.33652     -22.469704      1.0186712      0.10712402     0              5.8343918     -125.73509      0             -1.7470491      0             -13.788336      4.7085966    
     17500   100.40932     -890.75482     -13.792359      0.10306633    -0.071373946    103.8463      -21.90931       0.51637324     0.19875999     0              2.4302295     -125.68424      0             -39.77385       0             -13.792359      1.7150963    
     17600   109.54007     -1171.5733     -13.792637      0.10306633    -0.071646125    103.61189     -22.057229      0.4696449      0.19250021     0              2.0607471     -125.59747      0             -47.965026      0             -13.792637      1.398602     
     17700   50.212141     -1887.3334     -13.788764      0.10306633    -0.071709652    103.10551     -22.439185      0.97630648     0.15296021     0              5.806637      -125.47299      0             -68.838408      0             -13.788764      4.6773703    
     17800   30.319116     -1148.8863     -13.78704       0.10306633    -0.071162497    103.5197      -22.037065      0.42212396    -0.0062127145   0              6.5328905     -125.4856       0             -47.297697      0             -13.78704       6.1169792    
     17900   86.199592      119.3721      -13.790994      0.10306633    -0.07109814     103.89626     -21.693983      0.40097855    -0.22103946     0              3.0210416     -125.51914      0             -10.309154      0             -13.790994      2.8411025    
     18000   128.66495      990.90081     -13.793198      0.10306633    -0.070969828    103.88126     -21.761947      0.53622277    -0.3238151      0              0.68175855    -125.57223      0              15.109345      0             -13.793198      0.46935088   
     18100   76.095442      1153.6625     -13.789393      0.10306633    -0.070714951    103.79574     -21.911869      0.90131839    -0.34305989     0              3.8127806     -125.6369       0              19.860575      0             -13.789393      3.2545221    
     18200   16.25904       459.86499     -13.786241      0.10306633    -0.071069189    103.99236     -21.708478      1.0037001     -0.42002539     0              7.0014003     -125.62977      0             -0.37292251     0             -13.786241      6.4177256    
     18300   52.514734      816.55655     -13.788026      0.10306633    -0.070373821    104.16699     -21.55122       0.81512773    -0.51726665     0              4.7890012     -125.64783      0              10.029253      0             -13.788026      4.4911401    
     18400   124.97545      25.190976     -13.791916      0.10306633    -0.069947232    103.62937     -22.014331      0.97594235    -0.48708307     0              1.1443815     -125.57375      0             -13.057147      0             -13.791916      0.65552224   
     18500   106.4593      -732.44769     -13.78985       0.10306633    -0.069420478    103.26762     -22.297335      0.92677692    -0.28717929     0              2.4781205     -125.49553      0             -35.153847      0             -13.78985       1.8385229    
     18600   37.28788      -947.71607     -13.784989      0.10306633    -0.068768094    103.54431     -22.050071      0.34239576    -0.012689152    0              6.1532684     -125.52561      0             -41.427923      0             -13.784989      5.8235618    
     18700   35.137109     -942.27796     -13.785617      0.10306633    -0.069201489    103.49669     -22.125234      0.53002019     0.22637664     0              6.3496133     -125.55272      0             -41.269932      0             -13.785617      5.5932165    
     18800   107.3924      -552.6257      -13.789517      0.10306633    -0.068598523    103.25383     -22.488001      0.68197293     0.3635647      0              2.6162729     -125.67323      0             -29.908475      0             -13.789517      1.5707352    
     18900   116.63561     -516.09875     -13.790346      0.10306633    -0.068657167    103.25584     -22.616065      0.86348466     0.37167414     0              2.2200151     -125.80325      0             -28.843888      0             -13.790346      0.98485633   
     19000   54.424731      552.80058     -13.786111      0.10306633    -0.068320463    103.58227     -22.370443      0.640037       0.29156242     0              5.5019663     -125.88439      0              2.3379481      0             -13.786111      4.5703669    
     19100   26.207236      1112.371      -13.784038      0.10306633    -0.068210709    103.84453     -22.134359      0.55029931     0.12178759     0              6.8660639     -125.91068      0              18.661543      0             -13.784038      6.193977     
     19200   87.425735      1037.3673     -13.787182      0.10306633    -0.068261734    103.41708     -22.448003      0.93367526    -0.082550109    0              3.7094302     -125.79682      0              16.470695      0             -13.787182      2.8583051    
     19300   126.53083      946.24353     -13.790117      0.10306633    -0.068071668    103.57039     -22.194879      0.68649424    -0.18534404     0              1.2386388     -125.69719      0              13.809865      0             -13.790117      0.73748859   
     19400   81.098866      199.53321     -13.787555      0.10306633    -0.067919079    103.89332     -21.751275      0.64726618    -0.21406319     0              3.370654      -125.57667      0             -7.9675804      0             -13.787555      2.937451     
     19500   29.894353     -935.71745     -13.783839      0.10306633    -0.067995615    103.58913     -21.974719      0.89184194    -0.30416123     0              6.4978015     -125.49585      0             -41.076797      0             -13.783839      5.9101208    
     19600   55.284176     -2136.8532     -13.785314      0.10306633    -0.068367726    103.26943     -22.354308      1.0340714     -0.27795241     0              5.4379532     -125.55537      0             -76.112937      0             -13.785314      4.6818342    
     19700   114.47224     -1671.8241     -13.788396      0.10306633    -0.067682466    103.25761     -22.48211       0.76204227    -0.10049711     0              2.2105342     -125.67204      0             -62.552076      0             -13.788396      1.548989     
     19800   103.87713     -456.48324     -13.787996      0.10306633    -0.067292257    103.66343     -22.262356      0.41136824     0.14508041     0              2.5912385     -125.8585       0             -27.102676      0             -13.787996      2.0347898    
     19900   56.244685      477.5491      -13.785078      0.10306633    -0.067798996    103.48385     -22.549979      0.57401943     0.35441618     0              5.5794619     -125.96603      0              0.14404984     0             -13.785078      4.6510263    
     20000   40.552083      1640.3177     -13.784017      0.10306633    -0.067748292    103.34069     -22.699281      0.87906908     0.54034491     0              6.6185812     -125.97222      0              34.060684      0             -13.784017      5.1991672    
     20100   84.56324       2259.6053     -13.786715      0.10306633    -0.067224007    103.57238     -22.436799      0.71937738     0.49031911     0              3.8608124     -125.94196      0              52.121336      0             -13.786715      2.6511159    
     20200   106.59465      1812.5857     -13.788464      0.10306633    -0.06686711     103.55963     -22.330335      0.61743392     0.32272869     0              2.5048417     -125.8231       0              39.080943      0             -13.788464      1.5646791    
     20300   86.443124     -333.43759     -13.786335      0.10306633    -0.067212208    103.27459     -22.444837      0.53666054     0.13756589     0              3.7627622     -125.65221      0             -23.512025      0             -13.786335      3.0885358    
     20400   49.429415     -2266.5185     -13.783085      0.10306633    -0.067152372    103.07485     -22.525575      0.83285851    -0.10942765     0              5.9430363     -125.53328      0             -79.892778      0             -13.783085      5.2196055    
     20500   62.632645     -2734.2513     -13.783936      0.10306633    -0.067002925    103.3872      -22.170757      0.59749429    -0.35174254     0              4.8395971     -125.49095      0             -93.536436      0             -13.783936      4.5938453    
     20600   94.479561     -2165.6845     -13.78703       0.10306633    -0.066963633    103.87866     -21.759639      0.72127324    -0.52922793     0              2.6217218     -125.57133      0             -76.955603      0             -13.78703       2.4296765    
     20700   102.7576      -488.57289     -13.787324      0.10306633    -0.067041752    103.87377     -21.873986      0.87306836    -0.55302772     0              2.2669441     -125.68071      0             -28.037993      0             -13.787324      1.9469034    
     20800   62.266935      1450.3723     -13.783956      0.10306633    -0.066765077    103.86014     -22.002164      1.1388018     -0.47962716     0              4.6916957     -125.79553      0              28.520429      0             -13.783956      4.032521     
     20900   45.261886      3202.7983     -13.782734      0.10306633    -0.066439466    104.33213     -21.610877      0.3212511     -0.35703972     0              5.2647184     -125.87657      0              79.636321      0             -13.782734      5.300507     
     21000   80.020708      2818.1389     -13.786113      0.10306633    -0.066907334    104.0304      -21.892643      0.62007139    -0.15109581     0              3.5745261     -125.85614      0              68.413218      0             -13.786113      3.1055505    
     21100   120.58821      953.67673     -13.788545      0.10306633    -0.06710273     103.34412     -22.519485      0.81406884     0.03462384     0              1.9013795     -125.7965       0              14.028249      0             -13.788545      1.0526868    
     21200   89.411489     -1203.349      -13.786505      0.10306633    -0.067417839    103.02218     -22.757639      0.66048575     0.2334597      0              3.9072799     -125.7124       0             -48.885728      0             -13.786505      3.0133345    
     21300   34.696453     -3236.7168     -13.783003      0.10306633    -0.067505763    103.06505     -22.639103      0.60715707     0.36554198     0              6.8910527     -125.63665      0             -108.19139      0             -13.783003      5.9183536    
     21400   47.140628     -3413.0646     -13.784365      0.10306633    -0.067788354    103.18755     -22.548797      0.43173437     0.44056258     0              6.0946042     -125.66856      0             -113.33646      0             -13.784365      5.2223073    
     21500   109.09416     -1891.7487     -13.788824      0.10306633    -0.06842599     102.89774     -22.903235      0.8236095      0.44705831     0              2.9358208     -125.73255      0             -68.967252      0             -13.788824      1.665153     
     21600   118.20781      820.02192     -13.789         0.10306633    -0.068338847    103.3174      -22.616321      0.53446488     0.419162       0              2.1325757     -125.86538      0              10.129357      0             -13.789         1.1789488    
     21700   50.694275      2862.8349     -13.784862      0.10306633    -0.067987639    103.75707     -22.289696      0.63396745     0.3437717      0              5.6337441     -125.97878      0              69.71816       0             -13.784862      4.656005     
     21800   32.803505      3277.6581     -13.784284      0.10306633    -0.068339752    103.52045     -22.493358      0.91878729     0.21414006     0              6.8512341     -125.94547      0              81.81828       0             -13.784284      5.7183067    
     21900   89.444398      2437.1735     -13.788388      0.10306633    -0.068290391    103.2788      -22.653851      0.89657835     0.087508468    0              3.7997445     -125.86436      0              57.298964      0             -13.788388      2.8156577    
     22000   133.26757     -34.296992     -13.790661      0.10306633    -0.068256494    103.19613     -22.598638      0.87414958     0.017637246    0              1.2603159     -125.72651      0             -14.791034      0             -13.790661      0.36852908   
     22100   70.874476     -2547.4318     -13.787583      0.10306633    -0.068692784    103.41412     -22.245094      0.64771504     0.025082853    0              4.443507      -125.59052      0             -88.090944      0             -13.787583      3.7707091    
     22200   22.510401     -3744.8556     -13.784586      0.10306633    -0.069129899    103.26172     -22.348475      0.39230143     0.051653845    0              7.2890029     -125.54107      0             -123.01434      0             -13.784586      6.8450476    
     22300   60.917185     -2968.6105     -13.787538      0.10306633    -0.069465414    103.10643     -22.512854      0.89679366     0.016593097    0              5.2752475     -125.54982      0             -100.37582      0             -13.787538      4.3618608    
     22400   127.15262     -428.78693     -13.791882      0.10306633    -0.069827604    103.71759     -22.069705      0.60786238    -0.029833245    0              1.0764846     -125.71747      0             -26.298718      0             -13.791882      0.4984555    
     22500   98.59391       2014.3699     -13.790148      0.10306633    -0.069622133    104.04105     -21.898302      0.49426236     0.031695258    0              2.5242498     -125.86973      0              44.964889      0             -13.790148      1.9982922    
     22600   34.846285      3427.4539     -13.785983      0.10306633    -0.06976402     103.89076     -22.09917       0.392071       0.14061272     0              6.3396541     -125.92017      0              86.185817      0             -13.785983      5.8069704    
     22700   46.651451      2851.047      -13.786737      0.10306633    -0.069986448    103.55903     -22.418012      0.74105629     0.2111984      0              5.9891514     -125.90705      0              69.372454      0             -13.786737      5.0368968    
     22800   110.54429      1015.8907     -13.791364      0.10306633    -0.07007128     103.52778     -22.32366       0.57148084     0.28745308     0              2.2715772     -125.78137      0              15.840085      0             -13.791364      1.4126433    
     22900   110.32533     -1242.8525     -13.791777      0.10306633    -0.069882863    103.27384     -22.428442      0.67482361     0.33535134     0              2.3883468     -125.6324       0             -50.043236      0             -13.791777      1.3781718    
     23000   48.515133     -3248.6857     -13.787772      0.10306633    -0.070010978    102.50259     -23.096518      1.1183872      0.37574132     0              6.5610724     -125.52909      0             -108.54527      0             -13.787772      5.0669438    
     23100   31.460129     -3353.8085     -13.786093      0.10306633    -0.070014079    102.43802     -23.118477      0.83210667     0.47102381     0              7.5506266     -125.48648      0             -111.60981      0             -13.786093      6.2474961    
     23200   83.996533     -1606.1607     -13.789195      0.10306633    -0.069765087    102.95604     -22.700022      0.67337993     0.60073245     0              4.1536502     -125.5863       0             -60.637608      0             -13.789195      2.8795378    
     23300   116.41712      1097.8162     -13.791881      0.10306633    -0.069839465    103.30984     -22.46841       0.43625315     0.6438645      0              2.0831995     -125.70841      0              18.229167      0             -13.791881      1.0030819    
     23400   79.016009      2574.9085     -13.789268      0.10306633    -0.069835025    103.39335     -22.486996      0.56820907     0.46720195     0              4.2226262     -125.81051      0              61.31553       0             -13.789268      3.1872152    
     23500   40.496262      2684.7426     -13.786295      0.10306633    -0.06993267     103.77603     -22.145927      0.67931896     0.21436254     0              6.0661106     -125.85202      0              64.52214       0             -13.786295      5.1724291    
     23600   59.745526      1829.3793     -13.788088      0.10306633    -0.070391093    104.17412     -21.667093      0.44697254    -0.011779634    0              4.4952934     -125.77082      0              39.571153      0             -13.788088      4.0601005    
     23700   99.488576     -99.725363     -13.791436      0.10306633    -0.070425179    103.98804     -21.699068      0.53605677    -0.15125163     0              2.273058      -125.61669      0             -16.70022       0             -13.791436      1.8882529    
     23800   93.453227     -2116.4765     -13.791367      0.10306633    -0.070467179    103.48526     -21.998074      0.68388644    -0.32492666     0              2.9139474     -125.41286      0             -75.524646      0             -13.791367      2.5549876    
     23900   59.5981       -3021.9074     -13.788282      0.10306633    -0.070342636    103.46131     -21.9109        0.74412947    -0.47139146     0              4.7472558     -125.30187      0             -101.93112      0             -13.788282      4.4745178    
     24000   46.029751     -1850.9905     -13.78715       0.10306633    -0.070021171    103.65503     -21.737114      0.57242182    -0.43817461     0              5.3430507     -125.32213      0             -67.776747      0             -13.78715       5.2088035    
     24100   79.408776     -142.96314     -13.789883      0.10306633    -0.070055375    103.3969      -22.077093      0.74982451    -0.24520325     0              3.7898632     -125.40394      0             -17.959824      0             -13.789883      3.2852419    
     24200   101.55668      1223.053      -13.791871      0.10306633    -0.070202036    103.24386     -22.410426      1.066708       0.050734656    0              2.8668528     -125.58409      0              21.882074      0             -13.791871      1.7494101    
     24300   85.007273      2269.9166     -13.79019       0.10306633    -0.070317593    103.40867     -22.435307      0.83153582     0.38796902     0              3.8306963     -125.77366      0              52.41862       0             -13.79019       2.6111914    
     24400   46.662708      1981.5026     -13.786805      0.10306633    -0.069933804    103.54642     -22.416238      0.34884735     0.75946601     0              5.9866718     -125.89273      0              44.00956       0             -13.786805      4.8783584    
     24500   51.842179      657.62104     -13.78752       0.10306633    -0.070135501    103.12959     -22.855999      0.32632449     1.0734945      0              6.1323767     -125.91545      0              5.3939369      0             -13.78752       4.7325577    
     24600   90.475533     -1125.7618     -13.790897      0.10306633    -0.070350797    102.50948     -23.377652      0.9837043      1.2868685      0              4.4626383     -125.81678      0             -46.627058      0             -13.790897      2.1920655    
     24700   101.58115     -1625.078      -13.791145      0.10306633    -0.069838172    102.68085     -23.127361      0.45238964     1.4024151      0              3.5831279     -125.73837      0             -61.191336      0             -13.791145      1.7283231    
     24800   55.37731      -1467.4459     -13.787911      0.10306633    -0.0696387      102.58966     -23.147287      0.40780216     1.3746674      0              6.2230605     -125.66731      0             -56.590298      0             -13.787911      4.440591     
     24900   30.33073      -1263.6257     -13.786241      0.10306633    -0.069754612    102.35311     -23.337459      0.77542268     1.2456335      0              7.8334252     -125.62081      0             -50.643612      0             -13.786241      5.812369     
     25000   75.82161       45.849962     -13.789504      0.10306633    -0.069741283    102.57358     -23.137798      0.63878994     0.97580222     0              5.0541067     -125.64164      0             -12.452155      0             -13.789504      3.4395145    
     25100   121.91154      1222.055      -13.792174      0.10306633    -0.069560385    103.23651     -22.499878      0.63206394     0.49935761     0              1.8031964     -125.66683      0              21.852665      0             -13.792174      0.67177481   
     25200   86.103025      1513.8316     -13.789688      0.10306633    -0.069792869    103.78011     -21.964559      0.66740304    -0.046958809    0              3.2983923     -125.67488      0              30.365673      0             -13.789688      2.677948     
     25300   27.614272      544.38456     -13.78597       0.10306633    -0.070258514    103.7039      -21.997086      1.0726213     -0.41915537     0              6.6471701     -125.63073      0              2.0926104      0             -13.78597       5.9937042    
     25400   46.022598      44.34148      -13.787218      0.10306633    -0.069801183    103.99531     -21.574612      0.69383321    -0.59420254     0              5.1808857     -125.50012      0             -12.493868      0             -13.787218      5.0812551    
     25500   114.27741      119.4766      -13.792415      0.10306633    -0.070572132    104.32732     -21.136069      0.48715545    -0.66775704     0              0.87150863    -125.39281      0             -10.307528      0             -13.792415      1.0521102    
     25600   109.49753     -738.0203      -13.791845      0.10306633    -0.070538415    104.07623     -21.301559      0.6086513     -0.57258057     0              1.3082785     -125.30725      0             -35.318383      0             -13.791845      1.2722078    
     25700   37.884099     -1078.7154     -13.786791      0.10306633    -0.070170283    103.5018      -21.842053      0.76824001    -0.38275817     0              5.9096807     -125.27369      0             -45.250706      0             -13.786791      5.5241989    
     25800   29.864815     -807.52958     -13.786139      0.10306633    -0.069805446    103.23571     -22.226749      0.83399121    -0.078716502    0              6.7492045     -125.39265      0             -37.34012       0             -13.786139      5.9939298    
     25900   97.771749     -90.290808     -13.790801      0.10306633    -0.069853135    103.37912     -22.230043      0.52689185     0.33187378     0              2.9019001     -125.53931      0             -16.424399      0             -13.790801      2.0431345    
     26000   124.17256      61.263902     -13.792453      0.10306633    -0.070163723    103.25566     -22.492611      0.42337427     0.68021744     0              1.6675962     -125.67811      0             -12.005511      0             -13.792453      0.5640045    
     26100   55.250964      97.031334     -13.788257      0.10306633    -0.070367725    102.9311      -22.930085      0.8286679      0.8627074      0              6.0126686     -125.79082      0             -10.958052      0             -13.788257      4.3212933    
     26200   20.337611      898.04464     -13.786091      0.10306633    -0.070652506    103.14043     -22.757231      0.66710907     0.82950163     0              7.8193121     -125.82701      0              12.408029      0             -13.786091      6.3227014    
     26300   69.534052      909.29254     -13.788757      0.10306633    -0.070303885    103.49846     -22.395928      0.66053834     0.71075344     0              4.6690833     -125.82408      0              12.733441      0             -13.788757      3.2977915    
     26400   125.87383      673.22972     -13.79233       0.10306633    -0.070560663    103.10618     -22.640096      0.8145966      0.57708451     0              1.7188528     -125.67572      0              5.8444001      0             -13.79233       0.32717168   
     26500   80.153021     -176.38954     -13.790155      0.10306633    -0.070598052    102.82332     -22.764567      1.038612       0.47129729     0              4.4349139     -125.51729      0             -18.935076      0             -13.790155      2.9250047    
     26600   30.149272     -717.24094     -13.786558      0.10306633    -0.070409713    103.03919     -22.480568      0.77183962     0.29412        0              6.9864944     -125.44935      0             -34.707004      0             -13.786558      5.9205348    
     26700   52.681865     -1356.4774     -13.78739       0.10306633    -0.070318839    103.37216     -22.129166      0.55016027     0.084609717    0              5.3581181     -125.431        0             -53.353053      0             -13.78739       4.7233481    
     26800   115.13747     -1591.0887     -13.791258      0.10306633    -0.070455393    103.249       -22.333299      0.65507094    -0.088264295    0              2.0211855     -125.51184      0             -60.20005       0             -13.791258      1.4543788    
     26900   104.78858     -450.28803     -13.791642      0.10306633    -0.070652308    103.37763     -22.28687       0.88751193    -0.20768493     0              2.560486      -125.59385      0             -26.92562       0             -13.791642      1.880659     
     27000   46.001583      476.918       -13.787854      0.10306633    -0.07058855     104.19356     -21.574811      0.63683315    -0.25649091     0              5.1816393     -125.69779      0              0.12286525     0             -13.787854      4.8012971    
     27100   32.779748      1514.7404     -13.786623      0.10306633    -0.070612802    104.22193     -21.628743      0.93234398    -0.16579718     0              5.9856267     -125.78006      0              30.395246      0             -13.786623      5.2190799    
     27200   81.868821      1825.4426     -13.789576      0.10306633    -0.070626064    103.9615      -21.833979      0.50814568    -0.025689892    0              3.4077299     -125.72486      0              39.454839      0             -13.789576      2.9252741    
     27300   114.11111      1508.7365     -13.791849      0.10306633    -0.070599499    103.5214      -22.206801      0.63069311     0.050773613    0              1.9522248     -125.6576       0              30.2149        0             -13.791849      1.270758     
     27400   81.9797        10.940806     -13.789966      0.10306633    -0.070790709    103.47618     -22.163464      0.48531803     0.15197137     0              3.7305451     -125.56886      0             -13.470845      0             -13.789966      3.0932557    
     27500   45.640437     -2054.5507     -13.786958      0.10306633    -0.070867716    103.10506     -22.458129      0.7635203      0.33008646     0              6.0863064     -125.49232      0             -73.713988      0             -13.786958      4.9926996    
     27600   53.472998     -2418.0381     -13.787637      0.10306633    -0.070741076    102.45838     -23.127079      1.2993669      0.49517078     0              6.3109775     -125.51472      0             -84.316849      0             -13.787637      4.5164398    
     27700   93.982116     -2066.6018     -13.790689      0.10306633    -0.07077981     102.5992      -23.07694       1.0326108      0.55943867     0              3.9635375     -125.60536      0             -74.069222      0             -13.790689      2.371488     
     27800   96.71342      -448.02701     -13.791091      0.10306633    -0.070946745    103.12668     -22.692684      0.7412373      0.59539145     0              3.4241907     -125.74842      0             -26.85912       0             -13.791091      2.0875619    
     27900   64.360369      1373.1169     -13.787637      0.10306633    -0.070604823    103.38925     -22.543822      0.54686549     0.59591144     0              5.1111103     -125.86247      0              26.263367      0             -13.787637      3.9683333    
     28000   42.013318      2626.4108     -13.786164      0.10306633    -0.070523004    103.17484     -22.78288       1.1186741      0.48151456     0              6.6172745     -125.88719      0              62.820852      0             -13.786164      5.0170859    
     28100   77.797425      2796.8723     -13.788761      0.10306633    -0.070601542    103.60914     -22.338168      0.54388111     0.36980048     0              4.1433197     -125.8767       0              67.790267      0             -13.788761      3.2296381    
     28200   107.76275      1028.8031     -13.791347      0.10306633    -0.070746385    103.88913     -21.919314      0.55920909     0.22117329     0              2.024781      -125.7377       0              16.216729      0             -13.791347      1.2443986    
[...]
     93400   265349.84      231223.61      18440.942      0.10306633    -0.061103867    58.689044     -62.679259      403.60229      22.50508       0              3475.4293     -121.3072       0              25185.26       0              18440.942      3049.322     
     93500   217916.37      61397.404      18443.327      0.10306633    -0.076570665    83.018692     -31.168825      425.5107       13.725998      0              6132.7165     -114.11095      0              20234.163      0              18443.327      5693.4798    
     93600   238056.41      119250.81      18440.74       0.10306633    -0.099213532    97.802138     -19.837256      335.22679      9.2646714      0              4978.1588     -117.54018      0              21919.041      0              18440.74       4633.6673    
     93700   255736.09      178148.66      18436.219      0.10306633    -0.12787264     100.44954     -15.850599      624.42818      7.8617795      0              3968.3559     -116.17227      0              23632.45       0              18436.219      3336.0659    
     93800   252530.27      172312.41      18436.962      0.10306633    -0.19562686     76.520576     -38.563678      489.79841      14.778123      0              4173.3749     -114.88863      0              23462.961      0              18436.962      3668.7984    
     93900   222407.42      83818.657      18439.041      0.10306633    -0.23360399     74.109899     -36.882171      444.22908      19.740082      0              5879.7915     -110.75847      0              20883.859      0              18439.041      5415.8223    
     94000   221767.81      85322.882      18439.46       0.10306633    -0.50333815     73.101441     -35.448898      413.07411      13.580024      0              5915.0027     -108.047        0              20928.154      0              18439.46       5488.3486    
     94100   256800.42      183002.62      18437.412      0.10306633    -0.74116279     31.89772      -88.182615      623.92457      12.195409      0              3981.6026     -119.33917      0              23775.223      0              18437.412      3345.4826    
     94200   263693.75      185785.74      18437.886      0.10306633    -1.1454609     -46.084021     -169.10501      418.15822      13.931645      0              3672.5927     -121.87553      0              23856.875      0              18437.886      3240.5029    
     94300   224643.34      70678.156      18437.606      0.10306633     34.396227      68.837848     -15.886585      438.36631      23.685821      0              5730.7293     -119.12066      0              20499.143      0              18437.606      5268.6772    
     94400   216547.8       71867.791      18440.741      0.10306633    -0.050940036    103.59466     -9.5306717      515.38557      8.5505081      0              6186.0028     -113.07439      0              20536.977      0              18440.741      5662.0667    
     94500   237870.23      124920.4       18429.784      0.10306633    -0.76149986     72.544616     -46.318824      419.20285      2.6806485      0              5004.2295     -118.10194      0              22073.456      0              18429.784      4582.346     
     94600   264914.73      240413.73      18431.874      0.10306633    -1.1064899      62.324438     -61.770076      582.80279      18.414762      0              3490.0948     -122.98802      0              25444.249      0              18431.874      2888.8772    
     94700   248697.83      131430.08      18435.348      0.10306633    -1.7110644      63.375869     -52.560589      468.06985      20.39571       0              4402.8093     -114.22539      0              22268.893      0              18435.348      3914.3437    
     94800   212030.1       36874.871      18440.881      0.10306633    -1.7488738      72.957915     -41.348573      314.982        14.955926      0              6473.8219     -112.55761      0              19516.445      0              18440.881      6143.884     
     94900   226421.39      101869.38      18444.141      0.10306633     0.17908619     75.981857     -45.192904      510.5134       7.6574366      0              5665.8703     -121.35385      0              21415.462      0              18444.141      5147.6995    
     95000   240320.68      115756.16      18442.21       0.10306633    -1.4890038      70.768995     -54.5245        519.9278       15.308995      0              4886.0793     -123.80449      0              21818.58       0              18442.21       4350.8425    
     95100   262980.26      229296.78      18443.076      0.10306633     6.8500162      71.567827     -37.465681      700.11483      20.792836      0              3586.552      -115.88352      0              25131.193      0              18443.076      2865.6443    
     95200   233959.06      120063.19      18443.831      0.10306633    -1.8713713      80.445063     -36.523189      581.98536      11.768492      0              5229.991      -115.09688      0              21945.828      0              18443.831      4636.2372    
     95300   196009.37      5712.6169      18443.657      0.10306633     19.421485      33.033516     -67.288721      703.55659      13.96078       0              7409.8789     -119.74372      0              18610.283      0              18443.657      6692.3615    
     95400   231436.86      137360.69      18443.456      0.10306633     70.342655      120.51245      80.507777      691.1113       13.60248       0              5255.4315     -110.34732      0              22449.986      0              18443.456      4550.7177    
     95500   220051.15      63932.702      18443.958      0.10306633     29.557316     -65.765839     -140.62132      836.42092      14.751997      0              6121.8965     -104.4128       0              20308.744      0              18443.958      5270.7236    
     95600   237968.65      126495.57      18444.203      0.10306633    -0.53528398     81.851329     -33.711988      660.91587      16.380265      0              5000.4672     -115.02803      0              22133.819      0              18444.203      4323.1711    
     95700   234059.46      120102.9       18444.034      0.10306633    -0.87081555     92.678115     -24.355386      658.21113      7.8340012      0              5212.3406     -116.16268      0              21947.189      0              18444.034      4546.2955    
     95800   184989.59     -55115.001      18448.265      0.10306633    -0.25882505     79.204261     -19.019045      627.40286      15.619402      0              7990.3261     -97.964481      0              16840.673      0              18448.265      7347.3038    
     95900   200760.44      24665.026      18447.66       0.10306633    -0.13924428     60.533113     -49.582435      565.20224      17.856798      0              7127.0964     -109.9763       0              19167.088      0              18447.66       6544.0374    
     96000   225915.04      90921.38       18446.006      0.10306633    -0.075397284    84.489361     -30.274574      693.4197       13.295289      0              5681.4942     -114.68854      0              21097.997      0              18446.006      4974.7792    
     96100   223815.36      90223.354      18447.066      0.10306633    -0.058041639    96.122219     -19.535588      697.17833      14.935239      0              5790.7312     -115.59977      0              21078.696      0              18447.066      5078.6176    
     96200   227334.52      117794.77      18445.586      0.10306633    -0.066459999    39.03205      -78.446039      812.85583      20.612812      0              5648.853      -117.41163      0              21881.418      0              18445.586      4815.3843    
     96300   187528.95     -39462.626      18448.977      0.10306633    -0.22122422     59.436663     -54.778107      671.15207      14.766624      0              7882.9797     -113.99355      0              17297.933      0              18448.977      7197.061     
     96400   179491.25     -74502.76       18449.104      0.10306633    -0.60741447     87.403038     -27.200497      507.88258      6.4187794      0              8310.7476     -113.99612      0              16276.011      0              18449.104      7796.4462    
     96500   231253.39      112925.25      18447.15       0.10306633    -0.77752663     93.302296     -27.328978      442.18157      5.0366006      0              5377.3535     -119.85375      0              21740.948      0              18447.15       4930.1353    
     96600   211718.24      31475.841      18449.677      0.10306633     26.469236      95.3217        10.164105      402.10806      14.488873      0              6448.7675     -111.62683      0              19367.762      0              18449.677      6032.1706    
     96700   229846.27      100690.04      18448.45       0.10306633     16.897412      73.355005     -22.525123      377.2435       17.534993      0              5453.5421     -112.77754      0              21385.372      0              18448.45       5058.7636    
     96800   189770.38     -16286.715      18450.706      0.10306633    -1.340499       98.784712     -19.3481        633.64883      14.577416      0              7722.3345     -116.79231      0              17975.656      0              18450.706      7074.1082    
     96900   204402.79      19958.295      18447.035      0.10306633     176.02331      88.404588      151.38517      389.14054      20.300448      0              6719.2179     -113.04272      0              19029.178      0              18447.035      6309.7769    
     97000   236944.36      130595.62      18452.501      0.10306633    -0.53166597     71.34908      -45.179687      504.57407      23.985805      0              5078.2437     -115.9971       0              22261.707      0              18452.501      4549.6838    
     97100   176991.2      -80092.929      18454.187      0.10306633    -0.27520788    -35.520174     -137.01465      570.47497      21.480191      0              8567.2361     -101.21927      0              16118.041      0              18454.187      7975.2809    
     97200   219402.93      62347.264      18452.545      0.10306633    -0.18803021     39.926274     -70.697731      490.45157      16.36921       0              6097.2718     -110.43597      0              20271.087      0              18452.545      5590.451     
     97300   212356.2       73165.915      18452.505      0.10306633    -0.19066294     94.983505     -24.839096      624.82138      19.612211      0              6450.4677     -119.63194      0              20586.605      0              18452.505      5806.0341    
     97400   203549.34      18080.983      18453.634      0.10306633    -0.21143964     96.35377      -20.591679      389.41382      16.464668      0              6946.1297     -116.73401      0              18981.02       0              18453.634      6540.2512    
     97500   191251.11     -21534.922      18454.257      0.10306633    -0.1929183      102.08173     -14.480273      472.46176      16.162607      0              7637.1559     -116.36908      0              17826.127      0              18454.257      7148.5316    
     97600   208736.51      33255.228      18453.319      0.10306633    -0.10039223     101.8932      -14.345795      660.72177      17.575801      0              6645.7913     -116.13861      0              19423.306      0              18453.319      5967.4938    
     97700   217517.1       59088.604      18452.088      0.10306633    -0.1108274      77.243779     -28.701541      418.03994      18.159241      0              6161.6235     -105.83449      0              20175.581      0              18452.088      5725.4243    
     97800   169930.73     -96011.224      18456.617      0.10306633    -0.11410369     73.14758      -31.018         856.03878      13.998332      0              8863.5412     -104.05148      0              15656.166      0              18456.617      7993.5041    
     97900   216473.84      48348.786      18454.716      0.10306633    -0.099569845    64.037279     -51.293199      655.27366      15.291386      0              6245.9282     -115.23091      0              19864.951      0              18454.716      5575.3632    
     98000   217369.87      43015.754      18455.246      0.10306633    -0.09178463     85.100574     -28.015537      345.73731      22.381647      0              6172.4344     -113.02433      0              19709.928      0              18455.246      5804.3154    
     98100   207711.76      23633.329      18455.429      0.10306633    -0.077676911    94.41768      -23.523936      734.8096       11.719632      0              6715.1163     -117.86394      0              19144.765      0              18455.429      5968.587     
     98200   195992.04     -26045.983      18454.878      0.10306633    -0.09059369     129.8289       12.563558      600.29422      3.5941539      0              7342.2286     -117.17475      0              17695.17       0              18454.878      6738.3402    
     98300   208795.4       15743.083      18459.526      0.10306633    -0.13124151     99.704136     -20.080099      353.83542      5.7232913      0              6654.3966     -119.65299      0              18918.719      0              18459.526      6294.8379    
     98400   201796.66     -208.05925      18464.22       0.10306633    -0.11717644     95.256886     -22.230822      442.43653      14.2663        0              7057.6182     -117.37053      0              18458.151      0              18464.22       6600.9153    
     98500   198382.96     -9356.4463      18466.65       0.10306633    -0.14085925     65.654045     -46.284658      648.385        13.459061      0              7277.4378     -111.79784      0              18193.742      0              18466.65       6615.5937    
     98600   196352.86      10829.132      18465.956      0.10306633    -0.13311162     84.205164     -25.71807       639.36953      14.572419      0              7371.153      -109.79012      0              18781.819      0              18465.956      6717.211     
     98700   190455.46     -32303.413      18465.212      0.10306633    -0.12371326     80.554051     -36.906669      613.6118       11.411444      0              7715.5996     -117.33701      0              17522.988      0              18465.212      7090.5763    
     98800   209761.78      49163.34       18465.287      0.10306633    -0.17471159     74.48811      -44.297307      591.84945      8.3780359      0              6629.6436     -118.6107       0              19899.28       0              18465.287      6029.4161    
     98900   192732.4      -16317.232      18465.324      0.10306633    -0.28128663     100.19198     -12.724074      661.10231      13.716145      0              7562.5732     -112.63476      0              17989.384      0              18465.324      6887.7548    
     99000   167473.15     -101412.55      18466.078      0.10306633    -0.23524022     95.630145     -16.272315      387.91957      7.7420744      0              8997.4437     -111.66722      0              15508.082      0              18466.078      8601.782     
     99100   213347.34      37726.973      18464.638      0.10306633    -0.25234354     106.33934     -10.472982      473.25237      7.7269157      0              6392.1008     -116.55998      0              19565.056      0              18464.638      5911.1215    
     99200   207739.61      11033.04       18465.271      0.10306633    -0.27843189     81.602861     -40.756195      436.46033      11.822983      0              6740.6127     -122.08062      0              18787.082      0              18465.271      6292.3294    
     99300   185940.44     -51243.529      18465.263      0.10306633    -0.5071291      72.689817     -49.243836      601.96632      6.8352003      0              7983.6977     -121.42652      0              16970.595      0              18465.263      7374.8962    
     99400   186207.23     -55941.361      18464.49       0.10306633    -0.7657235      75.005115     -40.826161      564.38199      9.178943       0              7959.3964     -115.06555      0              16832.795      0              18464.49       7385.8355    
     99500   200655.11      2138.4172      18462.544      0.10306633    -1.1153019      116.97965      2.8889487      499.95425      11.739926      0              7095.4739     -112.9754       0              18524.917      0              18462.544      6583.7797    
     99600   204651.42      20719.753      18462.747      0.10306633    -1.2337283      74.664706     -46.934196      673.78009      12.292197      0              6919.1684     -120.36517      0              19067.1        0              18462.747      6233.0962    
     99700   174536.46     -61622.3        18464.333      0.10306633     32.420647      56.770542     -26.649814      499.84825      16.086401      0              8606.0427     -115.841        0              16666.937      0              18464.333      8090.108     
     99800   207841.39      12868.594      18463.015      0.10306633     6.4911387      54.800347     -55.018626      432.03679      11.170699      0              6746.8555     -116.31011      0              18838.366      0              18463.015      6303.648     
     99900   187919.04     -15046.492      18463.902      0.10306633     158.61152      98.94408       151.49437      524.72498      22.693336      0              7669.5395     -106.06124      0              18025.027      0              18463.902      7122.1212    
    100000   198456.98     -6059.5034      18463.435      0.10306633    -1.1805713      84.584795     -32.689357      727.4803       11.22634       0              7256.4354     -116.09358      0              18286.691      0              18463.435      6517.7287    
WARNING: Bond/angle/dihedral extent > half of periodic box length (src/domain.cpp:1172)
Loop time of 10.4094 on 1 procs for 100000 steps with 20 atoms

Performance: 83.002 ns/day, 0.289 hours/ns, 9606.683 timesteps/s, 192.134 katom-step/s
99.7% CPU use with 1 MPI tasks x no OpenMP threads

MPI task timing breakdown:
Section |  min time  |  avg time  |  max time  |%varavg| %total
---------------------------------------------------------------
Pair    | 0.39592    | 0.39592    | 0.39592    |   0.0 |  3.80
Bond    | 0.26807    | 0.26807    | 0.26807    |   0.0 |  2.58
Kspace  | 9.5103     | 9.5103     | 9.5103     |   0.0 | 91.36
Neigh   | 0.0655     | 0.0655     | 0.0655     |   0.0 |  0.63
Comm    | 0.097382   | 0.097382   | 0.097382   |   0.0 |  0.94
Output  | 0.020438   | 0.020438   | 0.020438   |   0.0 |  0.20
Modify  | 0.031531   | 0.031531   | 0.031531   |   0.0 |  0.30
Other   |            | 0.02032    |            |       |  0.20

Nlocal:             20 ave          20 max          20 min
Histogram: 1 0 0 0 0 0 0 0 0 0
Nghost:            550 ave         550 max         550 min
Histogram: 1 0 0 0 0 0 0 0 0 0
Neighs:            880 ave         880 max         880 min
Histogram: 1 0 0 0 0 0 0 0 0 0

Total # of neighbors = 880
Ave neighs/atom = 44
Ave special neighs/atom = 7.6
Neighbor list builds = 2908
Dangerous builds = 0

write_data OCCO_10k_out.data
System init for write_data ...
PPPM initialization ...
  using 12-bit tables for long-range coulomb (src/kspace.cpp:342)
  G vector (1/distance) = 0.30925871
  grid = 16 10 10
  stencil order = 5
  estimated absolute RMS force accuracy = 0.00022876842
  estimated relative force accuracy = 6.889293e-07
  using double precision KISS FFT
  3d grid and FFT values/proc = 6647 1600
Generated 45 of 45 mixed pair_coeff terms from geometric mixing rule




Total wall time: 0:00:10
